h 1 0 10 tcp 40 ------- 0 0.0 7.0 0 0
+ 1.002 0 10 tcp 40 ------- 0 0.0 7.0 0 0
- 1.002 0 10 tcp 40 ------- 0 0.0 7.0 0 0
h 2 6 10 tcp 40 ------- 0 6.0 2.0 0 1
+ 2.002 6 10 tcp 40 ------- 0 6.0 2.0 0 1
- 2.002 6 10 tcp 40 ------- 0 6.0 2.0 0 1
h 4 0 10 tcp 40 ---A--- 0 0.0 7.0 0 2
+ 4.002 0 10 tcp 40 ---A--- 0 0.0 7.0 0 2
- 4.002 0 10 tcp 40 ---A--- 0 0.0 7.0 0 2
h 5 6 10 tcp 40 ---A--- 0 6.0 2.0 0 3
+ 5.002 6 10 tcp 40 ---A--- 0 6.0 2.0 0 3
- 5.002 6 10 tcp 40 ---A--- 0 6.0 2.0 0 3
h 10 0 10 tcp 40 ---A--- 0 0.0 7.0 0 4
+ 10.002 0 10 tcp 40 ---A--- 0 0.0 7.0 0 4
- 10.002 0 10 tcp 40 ---A--- 0 0.0 7.0 0 4
h 11 6 10 tcp 40 ---A--- 0 6.0 2.0 0 5
+ 11.002 6 10 tcp 40 ---A--- 0 6.0 2.0 0 5
- 11.002 6 10 tcp 40 ---A--- 0 6.0 2.0 0 5
